/*--------------------------------*- C++ -*----------------------------------*\
| =========                 |                                                 |
| \\      /  F ield         | OpenFOAM: The Open Source CFD Toolbox           |
|  \\    /   O peration     | Version:  2106                                  |
|   \\  /    A nd           | Website:  www.openfoam.com                      |
|    \\/     M anipulation  |                                                 |
\*---------------------------------------------------------------------------*/
FoamFile
{
    version     2.0;
    format      ascii;
    arch        "LSB;label=32;scalar=64";
    class       volScalarField;
    location    "4000/Helium";
    object      p;
}
// * * * * * * * * * * * * * * * * * * * * * * * * * * * * * * * * * * * * * //

dimensions      [1 -1 -2 0 0 0 0];

internalField   nonuniform List<scalar> 
3200
(
0.043513797920619171066825
0.0427750202085967132226152
0.0421499098871119109999128
0.0416235940450630712006408
0.0410918159766162638391052
0.0405477251702283103540481
0.0400032312991776828337009
0.0394600622240750542601972
0.0389169286232721248208755
0.0383735299981569286109639
0.0378300031291356544937976
0.0372864026808800708145952
0.0367427265017606710650888
0.0361989778312441570773395
0.0356551661962845531372857
0.0351112999009186854681985
0.034567385358935762140753
0.0340234279928913266322077
0.0334794324796337389171796
0.0329354027830711174051892
0.0323913422472741560631526
0.0318472537079659903658246
0.0313031395836403797394709
0.0307590019490607095853374
0.0302148425960519981248176
0.0296706630840690085970657
0.0291264647809229768049555
0.0285822488961990223144127
0.0280380165078008003476384
0.0274937685839579878943617
0.0269495060004402986475469
0.0264052295551704153953043
0.025860939979426865453771
0.0253166379477156727739739
0.0247723240850694706449708
0.0242279989739057934061695
0.0236836631588392340641569
0.0231393171515967277507286
0.0225949614341753521329359
0.0220505964625039851956245
0.0215062226685766438860625
0.0209618404632505618556682
0.0204174502376937953840308
0.0198730523656068386317841
0.0193286472042830219375542
0.0187842350964199933383014
0.0182398163708958199746846
0.0176953913443541645256207
0.0171509603218282201397837
0.0166065235981843438428651
0.0160620814586544292945636
0.0155176341802248183437962
0.0149731820322427291308776
0.0144287252777274173365374
0.0138842641742222046991051
0.0133397989750674485914805
0.0127953299306956085057418
0.0122508572899278512374766
0.0117063813018672118609897
0.0111619022174698333954579
0.0106174202921063918353406
0.010072935787738308485717
0.00952844897628502170150444
0.00898396014282612509482817
0.00843946958990420166568658
0.00789497764210716004851243
0.00735048465162650103282838
0.00680599100437803868068887
0.00626149712701293444105932
0.005717003494430617990818
0.00517251063832347042492632
0.004628019155827579715623
0.00408352971998194279323879
0.00353904309269067584436952
0.00299456014023576468432997
0.0024500818984246552044437
0.00190560949289014076001025
0.00136114527724940162500822
0.000816687883964675731540694
0.000272268954422727254768843
0.0435161316756214403000946
0.0427717970472557759697985
0.0421495408771064283826036
0.0416239330034329918506231
0.0410917517340162602446085
0.0405475438535145213392319
0.0400031016560162128170575
0.0394599613159345857793525
0.0389168340191752212819942
0.0383734423834067445158169
0.0378299244820136798539423
0.0372863321568023611818354
0.036742662914662743700589
0.0361989203856776867174183
0.0356551142585228575399015
0.0351112528965849407525113
0.0345673427873620306427505
0.0340233894305219802811635
0.0334793975675200944364107
0.0329353712150142891035287
0.0323913137609746146217127
0.0318472280775826052656718
0.0313031166133652741234705
0.0307589814677866613124024
0.0302148244530189638568096
0.0296706471453317965902841
0.0291264509264763452045521
0.0285822370176578369194154
0.0280380065065125999579365
0.0274937603694843588075791
0.0269494994893128489432677
0.0264052246698899470422894
0.0258609366476335172935208
0.0253166361015218221997003
0.0247723236604956188744442
0.024227999910427944901814
0.0236836653989970780109786
0.0231393206406796392293757
0.0225949661199421787671771
0.0220506022949589000625714
0.0215062295997621791276977
0.0209618484470827162735596
0.0204174592298012567981313
0.0198730623232058652150034
0.0193286580860461444653087
0.0187842468623759320522915
0.0182398289823158636646649
0.0176954047636652990471706
0.0171509745125108629959509
0.0166065385246855698464508
0.016062097086290708092271
0.0155176504750857806314013
0.0149731989610893366504651
0.014428742807877044385112
0.0138842822734280921942451
0.013339817611377669318018
0.012795349072295155237744
0.0122508769049586730554013
0.0117064013582117085188194
0.0111619226825122198204499
0.0106174411324353717284152
0.0100729569688161012253058
0.00952847046204739756003477
0.00898398189521995745032701
0.00843949156836133577985759
0.00789499980291483507977013
0.00735050694725955695851827
0.00680601338269604116959499
0.00626151953045100961858793
0.00571702585905259092619035
0.00517253289285742046121896
0.00462804122049400266936114
0.00408355150489954615150578
0.00353906449539587338037894
0.00299458103911188523726938
0.00245010214607904817235573
0.00190562885142836761949436
0.0013611635338802716751333
0.000816703411669190818857056
0.00027228336066083958086001
0.0435171323321920794358064
0.0427694827604824107103454
0.0421493888221644713576453
0.0416242233876252532009943
0.0410916449115315343676436
0.0405473569501430819439491
0.0400029774822513034537863
0.0394598647761310247772393
0.0389167430513773435207803
0.0383733587433453121606775
0.0378298498111041686664535
0.0372862651967847541500944
0.0367426023884022817656003
0.0361988655379718374249798
0.035655064512259616871237
0.0351112077384309051453215
0.0345673017812338501109082
0.0340233522143596617270944
0.0334793638363939660695934
0.0329353407083475130390227
0.0323912862541674492766752
0.0318472033753989455795441
0.031303094544470694282623
0.0307589618803986337980394
0.0302148072114650917407985
0.0296706321273084300260692
0.0291264380208435674779466
0.0285822261226706154924049
0.0280379975283865275070827
0.0274937532212389708352607
0.0269494940898219563496507
0.0264052209431116860494093
0.0258609345219687827843735
0.0253166355092918314573236
0.0247723245374975933885686
0.0242280021955725566318307
0.0236836690339931182913702
0.0231393255697749135324504
0.0225949722896925664361589
0.0220506096540372120706763
0.02150623809878271161522
0.0209618580384547566197728
0.0204174698675889804144745
0.0198730739630117621274952
0.0193286706848929679125604
0.018784260378608849673121
0.0182398433754960391517397
0.0176954199944814247191793
0.0171509905426778935799703
0.0166065553168532331618223
0.0160621146039407747263539
0.0155176686824267159175994
0.0149732178229419442272441
0.0144287622895438831516213
0.0138843023405523773722292
0.0133398382297768760412771
0.0127953702077729086078461
0.0122508985230860949211529
0.011706423424067710289953
0.0111619451603895761260254
0.0106174639854805276384386
0.0100729801586234169602507
0.00952849394816916717143584
0.00898400563460654069669609
0.00843951551471266471493582
0.007895023905930977081713
0.00735053115182162427471146
0.00680603762792848353962993
0.00626154374875125332988723
0.00571704997500472895249901
0.00517255682210122479797176
0.00462806486833955768589455
0.00408357476432673859034761
0.0035390872436031361493447
0.00299460312870142080984848
0.00245012339220014628907163
0.0019056489569359322082398
0.00136118214350582425464786
0.000816718871782323328420428
0.000272296710937711366855296
0.0435175027739758135680859
0.042767937306010354869823
0.042149145934843111616086
0.0416243774561919285814859
0.0410915427521536327781781
0.0405471977749695886017456
0.0400028716116795912682846
0.039459784185347332452487
0.038916668219282565810424
0.0383732903514739098760344
0.0378297889093374556379601
0.0372862105334337348705454
0.0367425528125346970154119
0.0361988204250072859169407
0.0356550234209599831158854
0.0351111702900524721981945
0.0345672676633868650175607
0.0340233211735022980648502
0.0334793356605693967487092
0.0329353152156008147088961
0.0323912632858682006387063
0.0318471827914387495273019
0.0313030762195436115802316
0.0307589457012181766160097
0.0302147930746724385775437
0.0296706199378630117169386
0.029126427690752892257775
0.0285822175699843132601341
0.0280379906763814669423684
0.0274937479977608832670821
0.0269494904267385086693576
0.0264052187758646965398679
0.0258609337891931787001276
0.0253166361525014663169664
0.0247723265008109455598273
0.0242280054254847623806945
0.0236836734791732068938774
0.0231393311808941876117629
0.0225949790192690909418349
0.022050617456302382818345
0.0215062469295565425464467
0.0209618678550393990056566
0.0204174806286623634898891
0.0198730856285406175254504
0.0193286832160373574229784
0.018784273737646135782331
0.0182398575257314253528218
0.0176954349001725713685929
0.0171510061689485390767906
0.0166065716296058991929829
0.0160621315697676743383671
0.0155176862685010470699343
0.0149732359969144274147723
0.0144287810194061744822891
0.0138843215944995813232454
0.0133398579760388817649908
0.0127953904144185049568394
0.0122509191578075334050357
0.0117064444539033852415999
0.0111619665514323881949643
0.0106174857024966731028348
0.0100730021646356273506973
0.00952851620395163759202894
0.00898402809809070897195671
0.00843953814033512883518995
0.0078950466438265053115142
0.00735055394701554769970597
0.00680606041933606853433503
0.00626156646823411260072145
0.00571707254625146866350294
0.00517257915953447337115145
0.00462808687574251410162818
0.00408359633281650622610437
0.00353910824804271962121249
0.00299462341834782477464905
0.00245014277640478225078757
0.00190566713014596929992583
0.00136119872721966479051092
0.000816732321329163282394581
0.000272308155886759469758301
0.043517585728392725596958
0.0427667117415506531363789
0.0421488076448643667060168
0.0416244529379819275249908
0.0410914544883384871831744
0.0405470564138502853612778
0.0400027751651861399051491
0.0394597132735680020121372
0.0389166038848186915388716
0.0383732318214307296933008
0.0378297368595759270215595
0.0372861637599543327414864
0.0367425102243996160034101
0.0361987814712818323226173
0.0356549877555786057237164
0.0351111376328496760379494
0.0345672377930373170284994
0.0340232939168301218302304
0.0334793108747018439141918
0.0329352927768794545571041
0.0323912430842777168682467
0.031847164727134863460023
0.0313030602004537444882359
0.0307589316414629589113705
0.0302147808935228356919112
0.0296706095590156711250263
0.0291264190417939924926394
0.0285822105819823202299546
0.0280379852835597707938486
0.0274937441372299293251835
0.0269494880382653879957733
0.0264052178016757725653729
0.0258609341737977803388215
0.0253166378425375843130851
0.0247723294449033286379613
0.0242280095741198540915118
0.023683678784581822795996
0.023139337596947102265732
0.0225949865013772670241377
0.0220506259613270465258505
0.0215062564157220761917877
0.0209618782818544527324356
0.020417491956840248812366
0.0198730978199293736863318
0.019328696233543624788398
0.0187842875451695867639046
0.0182398720880888112749751
0.0176954501830288227215426
0.017151022138737450489776
0.0166065882534478688470347
0.016062148815380355298954
0.0155177041040941918192964
0.014973254391080825786986
0.0144287999409844526488289
0.0138843410124287573725876
0.0133398778591818784056144
0.0127954107313574053095273
0.0122509398766112668349715
0.0117064655418389167162996
0.011161987974646805921175
0.0106175074256154595292445
0.0100730241503138601838474
0.00952853841232956591533743
0.00898405048616434352692917
0.00843956066124109706427792
0.00789506924599871033609855
0.00735057657329530548390162
0.00680608300593704695913289
0.00626158894372048913101736
0.005717094830399021068712
0.00517260116220484393589896
0.00462810849552983127885852
0.00408361745506355486995398
0.0035391287413023601003681
0.0029946431250573611257404
0.00245016149885481484063665
0.00190568455672528798590382
0.00136121448437595158817426
0.000816744933134918292029492
0.000272319089653902824538223
0.0435174637613921014289708
0.0427656311394669710890248
0.0421484397688750220267728
0.0416244844869246150009801
0.0410913730512610167466825
0.0405469279276778546416971
0.0400026881357258071170158
0.0394596524018663852295674
0.0389165499989026775207179
0.0383731830356821637662001
0.037829693576071056482224
0.0372861247943487295053444
0.03674247453503724780699
0.0361987485865139929641643
0.0356549574289665577309094
0.0351111096844138673156444
0.0345672120932609197585528
0.0340232703733328589734697
0.0334792894138257884906196
0.032935273333183627542109
0.0323912255961759237843367
0.0318471491348131380272335
0.031303046444822270333308
0.0307589196637988032678734
0.0302147706354851247612103
0.0296706009628097885921783
0.0291264120503706876175176
0.028582205139229523160882
0.0280379813344603309732683
0.0274937416279846455480218
0.0269494869163760426833409
0.0264052180159994286101632
0.0258609356745715737724289
0.0253166405813859719808878
0.0247723333748258653375096
0.0242280146494692760761325
0.0236836849610316362013673
0.0231393448314526663234236
0.022594994752131922904903
0.0220506351877151583751324
0.021506266578268193323531
0.0209618893421744147131935
0.0204175038775850706262993
0.0198731105647366838862222
0.0193287097669773179353658
0.0187843018326683680596645
0.0182398870959015572956741
0.0176954658781517774890357
0.0171510384888442085626892
0.0166066052268052134766041
0.0160621663807661192724385
0.015517722230685385143012
0.0149732730483471410121155
0.0144288190985443799674304
0.0138843606398992118478031
0.0133398979259967756516581
0.0127954312065506215639887
0.0122509607285768255813263
0.0117064867380244942707268
0.0111620094812166104764062
0.0106175292070292918295005
0.0100730461688358780003583
0.00952856062746528821583158
0.00898407285395885595036258
0.00843958313354438958986403
0.00789509176952431050711123
0.00735059908870560382160297
0.00680610544670512060405621
0.00626161123508333326836972
0.00571711688815227086352122
0.00517262289159109867747732
0.00462812978993516234427208
0.00408363819419789528947229
0.00353914878801425995466512
0.00299466231664752323762824
0.0024501796348936639297067
0.00190570132871393247211977
0.00136122954713635297557817
0.000816756887881121243673299
0.000272329836846174036697754
0.0435171848361848440100985
0.0427646165240145592623122
0.0421480711698914781160319
0.0416244875925351268119989
0.0410912938152793658086459
0.0405468112532437821582398
0.0400026120436299745253272
0.039459602537672423816506
0.0389165070486236913671618
0.0383731443853530737597701
0.0378296593968915767502992
0.0372860939104909389074649
0.0367424459699819613844873
0.0361987219644896787706934
0.0356549326118447904021558
0.0351110865971938426732812
0.0345671907014560297888295
0.0340232506674675028168764
0.0334792713907716282806248
0.0329352569865675945393058
0.0323912109134347828143241
0.0318471360966111130541556
0.0313030350254194025816368
0.0307589098319523447655488
0.0302147623555442182419206
0.0296705941957786274720821
0.0291264067548481393743476
0.0285822012722013740759763
0.0280379788519435485527609
0.0274937404855401662517878
0.0269494870695057529841332
0.0264052194204505916164116
0.0258609382865631343140222
0.0253166443577763251859825
0.0247723382732302592479368
0.0242280206283412222201257
0.023683691979714649455957
0.0231393528502082598818923
0.0225950037321508041820994
0.0220506450911143840609707
0.0215062773680773887396978
0.0209619009823155920402282
0.0204175163328425592068616
0.019873123800727088283935
0.0193287237501074890544395
0.018784316530096017983098
0.0182399024754823675664728
0.0176954819083849114458307
0.0171510551388072939038576
0.0166066224660770221654982
0.0160621841793435055079087
0.0155177405588761609805948
0.0149732918766593732506909
0.0144288383975432650541126
0.0138843803800513254653737
0.013339918077482743399842
0.0127954517390423232192642
0.0122509816109833274966334
0.0117065079381756566301309
0.011162030965504743731942
0.0106175509399661013865135
0.0100730681125364204125949
0.00952858274104202880583347
0.00898409509279287331329211
0.00843960544848298618858529
0.00789511410590990232727382
0.0073506213853741361394234
0.00680612763481695717121545
0.00626163323699601911953572
0.00571713861620733263674277
0.00517264424699888283182281
0.00462815066159019770225536
0.00408365845713470638350673
0.00353916830085716435649879
0.00299468091416548289410149
0.0024501971190465645852874
0.00190571740345897577828538
0.00136124391547591191975464
0.000816768237800736510330346
0.000272340555803627119499377
0.0435167863902254301033956
0.0427636149102175178171592
0.0421477106207824026018471
0.0416244755342275729592671
0.0410912164268995155902431
0.0405467060657389716249455
0.040002547900394293256543
0.0394595642824390469005635
0.038916475256011287542357
0.0383731159983820846459679
0.0378296344026530298454425
0.037286071144664062471108
0.0367424245397441964766649
0.0361987016048592250005989
0.0356549132998586065790292
0.0351110683659775144049853
0.0345671736130901408046157
0.0340232347958447783886626
0.033479256803117973806394
0.0329352437351247001595667
0.0323911990341286329386783
0.0318471256100639338315617
0.0313030259387786224944961
0.0307589021410705071302161
0.0302147560471533009607281
0.0296705892494474980647379
0.0291264031446514387591051
0.0285821989681038154951231
0.0280379778209200875016549
0.0274937406924707257449558
0.026949488477878483921879
0.0264052219929112909346802
0.0258609419853379034204277
0.0253166491449958730441949
0.0247723441111739467457298
0.0242280274796193156872093
0.0236836998074016064075309
0.0231393616179365567420145
0.0225950134041757490221958
0.0220506556323549519904592
0.0215062887441381730968537
0.0209619131594967061937851
0.020417529278133856457389
0.0198731374817984751679489
0.0193287381352840875736732
0.0187843315883306632985139
0.0182399181763154630275814
0.0176954982218948501937472
0.0171510720355545452642243
0.0166066399170273527874375
0.0160622021557902706911936
0.0155177590323330050897654
0.0149733108187500851826712
0.0144288577798589428419218
0.0138844001739916473453507
0.0133399382540668083596547
0.0127954722686799554631776
0.0122510024632114036813313
0.0117065290813350049436981
0.011162052366356601737496
0.0106175725632422571220737
0.0100730899203767092220385
0.00952860469237898355387983
0.00898411714255634673287343
0.00843962754677871594688465
0.00789513619696798930880366
0.00735064340651410408344901
0.00680614951519955581338284
0.0062616548964611372721234
0.00571715996402036817636283
0.00517266518077622201865484
0.00462817106624853480401072
0.0040836782037485018850842
0.00353918724495087648473923
0.00299469889004043421376622
0.00245021393506636604719962
0.00190573278306486212745063
0.00136125762385512385881092
0.000816779051051982961199893
0.000272351377415870849005991
0.0435162936406818037782251
0.0427625894494159039527226
0.0421473617596601554669
0.0416244607067219191121055
0.0410911422217940108803091
0.0405466121424856579258389
0.0400024965135910917646278
0.0394595382095746377570933
0.0389164548221954467721595
0.0383730979495907481569006
0.0378296186129156997157708
0.0372860564739659408606265
0.0367424101991757415253126
0.0361986874560351196139507
0.035654899442326991321206
0.0351110549441022712358063
0.0345671607867134647595897
0.0340232227222351801820821
0.0334792456192109511015076
0.0329352335508844087930136
0.0323911899330432268007129
0.031847117651851601649593
0.0313030191627209908311613
0.0307588965694837526698713
0.0302147516886383839251895
0.0296705861017286035008489
0.0291264011969602290563763
0.0285821982031400530221976
0.0280379782164345107975389
0.0274937422225301625333671
0.0269494911138653293891654
0.0264052257043096080812994
0.025860946740345794325755
0.0253166549110012024936811
0.0247723508551202370453481
0.0242280351682860571604916
0.0236837084076159561096819
0.0231393710967320066773656
0.0225950237289081375113842
0.0220506667707864520422412
0.0215063006644939033740194
0.0209619258305032696299008
0.0204175426690376866922794
0.0198731515623748987431352
0.0193287528758291568542482
0.0187843469596458319259558
0.018239934149677759084307
0.0176955147690163946960773
0.0171510891285312459808576
0.0166066575282696228532675
0.0160622202579462289295797
0.0155177775981868298904587
0.0149733298211105810698873
0.0144288771914192585910097
0.0138844199671683855845661
0.0133399584008077522895297
0.0127954927402309653894363
0.0122510232298442094112101
0.0117065501120128014067578
0.0111620736283377548769824
0.0106175940216066376498016
0.0100731115374481164370657
0.00952862642706776494239129
0.00898413894954615960264377
0.00843964937564281592052851
0.00789515799109315880022208
0.00735066510198692513178287
0.00680617103952632640506692
0.00626167616733116095401046
0.00571718088804508330763587
0.00517268565242872974813126
0.00462819096699628243496427
0.00408369740134210523069269
0.00353920559278246213419372
0.0029947162235124235446504
0.00245023007198430856079518
0.00190574747108687757649048
0.00136127069943751261016374
0.000816789375075032937981168
0.000272362379632912134531236
0.0435157227184160902422327
0.0427615152986855276417977
0.0421470266017441586026138
0.0416244535532879003647544
0.0410910731809915261147914
0.040546529544765536057227
0.0400024586897816739061717
0.0394595249063682054768698
0.0389164459421227071356242
0.0383730902817008140415211
0.0378296120074248232167946
0.0372860498354876251925205
0.036742402865325103633598
0.0361986794320595522966855
0.0356548909580315862011268
0.035111046258081229920478
0.0345671521574128226550471
0.0340232143898747882437839
0.0334792377893610368366772
0.0329352263899470240615663
0.0323911835707999876121654
0.0318471121859643033213949
0.0313030146636102957202752
0.0307588930850989025755915
0.0302147492487718181963796
0.0296705847217174911722992
0.0291264008807653358712475
0.028582198945863536432288
0.0280379800063478151761487
0.0274937450426949239745689
0.026949494943416592296348
0.026405230519468490812951
0.0258609525152132084524492
0.0253166616181782905270481
0.0247723584661910870008406
0.0242280436541910740300132
0.0236837177389396212612294
0.0231393812439226083388366
0.0225950346624440474851969
0.0220506784613013449847241
0.0215063130828671948691078
0.0209619389479265075260095
0.0204175564570563544686266
0.0198731659929154355626046
0.0193287679212072321943694
0.018784362592561422433679
0.0182399503431969409183999
0.0176955314965369751856183
0.017151106363738892468529
0.0166066752450732546542156
0.0160622384304051554759774
0.0155177962004147580732383
0.014973348827164015273361
0.0144288965751631827888479
0.0138844397021123215629768
0.013339978459914827307875
0.0127955130956808812991987
0.0122510438527519312235103
0.0117065709720900780477226
0.0111620946934750595036512
0.0106176152573919501537203
0.0100731329065565592545406
0.00952864788858685807237947
0.0089841604581241216870291
0.00843967088056870977375024
0.00789517943517900958050326
0.00735068642039474542948518
0.00680619215844706446777446
0.00626169700268051302588512
0.00571720134418704506451547
0.00517270562113623152272757
0.00462821032676096963398571
0.00408371601715800704168746
0.00353922331662847537009364
0.0029947328930420833749404
0.00245024551640479022404651
0.00190576146509579343220342
0.00136128315561894050120251
0.00081679923353969777731487
0.000272373591159213719430088
0.0435150838135358944414044
0.0427603754224261597971513
0.0421467066319510877403509
0.041624462772998235826627
0.0410910116872195071979768
0.0405464586846758234806032
0.0400024352483324130425046
0.0394595249281584764533548
0.0389164487736607112022824
0.0383730929881045193519107
0.0378296145124891458610961
0.0372860511151674248186971
0.0367424024087344841538183
0.0361986774056450716363642
0.0356548877294309146668283
0.0351110422026699106612391
0.0345671476325223672732001
0.0340232097176740230781711
0.0334792332424517502520445
0.0329352221894270297264384
0.032391179891089548481542
0.031847109161195680249179
0.0313030123940849294705835
0.0307588916433527703730988
0.0302147486849355315086108
0.029670585068054578653518
0.0291264021554198011820791
0.0285822011559096478272579
0.0280379831502423938760504
0.0274937491122351773675803
0.0269494999252922438903735
0.026405236396488816069672
0.0258609592672719330874731
0.0253166692230111685379956
0.0247723668999685897595953
0.0242280528919806628640465
0.0236837277550650884827554
0.0231393920122421117846478
0.0225950461565644043770984
0.022050690654741918195203
0.0215063259491828154268411
0.0209619524607998937437703
0.0204175705903620330339265
0.0198731807207642094392774
0.0193287832179690373390901
0.0187843784328725789400938
0.0182399667019513128662922
0.0176955483488606055142434
0.0171511236849520715130879
0.0166066930106331597793989
0.0160622566158369825539687
0.0155178147812210110584319
0.014973367778715938533618
0.0144289158725681761902271
0.0138844593200514836162096
0.0133399983724498769760425
0.0127955332760147297288533
0.0122510642729417706248141
0.0117065916026996286181117
0.0111621155031487277742297
0.0106176362123548261723327
0.0100731539699938209969643
0.0095286690199391267663831
0.00898418161221896556523081
0.00843969200665809979322596
0.00789520047579145116400934
0.00735070731010515395625893
0.00680621282250750987002919
0.00626171735565371478937635
0.00571722128863460209158287
0.00517272504658967263724278
0.00462822910919980130828311
0.00408373401925699475861764
0.00353924038945045617982066
0.00299474887702792010729658
0.00245026025309201230320544
0.00190577475698109092758226
0.00136129499280517756755471
0.000816808628541846747268818
0.000272384997835938306651182
0.0435143831517468063219134
0.0427591575910570426133361
0.0421464036141300513182983
0.0416244958702748149570461
0.041090960329774411929904
0.040546400260946191540512
0.0400024270092619663174993
0.0394595387716747750261881
0.0389164634206143333905459
0.0383731060045590030571638
0.0378296259953058502945034
0.0372860601440242259152491
0.0367424086513377864959828
0.0361986812070692470788558
0.0356548896021037370340778
0.0351110426406289893863644
0.0345671470915617090602368
0.0340232086002407244085255
0.0334792318859981549716842
0.0329352208675225063827519
0.0323911788207401837857979
0.0318471085112067009426084
0.0313030122931158699683962
0.0307588921872662436618473
0.0302147499431731150765224
0.0296705870889783611399348
0.029126404970695476959186
0.0285822047840587172007343
0.0280379875994930909122171
0.0274937543827958250086674
0.0269495060111548251358116
0.0264052432868557354628258
0.0258609669476808357035935
0.0253166776762199161043831
0.024772376106651151916882
0.024228062831271962584978
0.0236837384049875081248882
0.0231394033500385599977367
0.0225950581589574109320218
0.0220507032981343970012844
0.0215063392098114071482318
0.0209619663148519867756914
0.0204175850140605741334099
0.0198731956904280582243416
0.0193287987100502003934288
0.0187843944239739213397655
0.0182399831688272069663004
0.0176955652684007425090584
0.0171511410341487896547008
0.0166067107665338886679507
0.0160622747554772793421307
0.015517833281544267040597
0.0149733866164640447293799
0.0144289350241569597904645
0.0138844787614055675123437
0.0133400180788128559089545
0.0127955532217044025411479
0.0122510844310608872642643
0.0117066119447785943474827
0.0111621359987151766435254
0.0106176568284145518561434
0.0100731746704085280141872
0.00952868976468599325480024
0.00898420235652757324940065
0.00843971269998604334272585
0.0078952210606840628193126
0.00735072772087194160894885
0.00680623298385367794804957
0.0062617371811965185854354
0.00571724067959592657794943
0.00517274389070970092019408
0.00462824728039218889763529
0.00408375137825029571603253
0.00353925678665857959548369
0.00299476415577817119823001
0.00245027426715862433129201
0.00190578733577170637836229
0.00136130620218842036429907
0.000816817546236678782706209
0.000272396549126544093751001
0.0435136242480164275869825
0.0427578524926044423182248
0.0421461201148630656976302
0.0416245595966277318056292
0.0410909217267576010179653
0.040546355178609591596306
0.0400024347869342433714479
0.0394595668569796831359753
0.038916489917437055434668
0.03837312920134936661265
0.0378296462593466359392025
0.0372860766955774441955285
0.0367424213654428122310946
0.0361986906240456679517692
0.035654896385068544917285
0.0351110474032608754768603
0.0345671503868494600641981
0.034023210908489490145179
0.0334792336067128784571345
0.032935222324021830309082
0.0323911802701627171696686
0.0318471101549110194306458
0.0313030142863393590069165
0.0307588946477303122606362
0.0302147529584356512588617
0.0296705907225360415724325
0.0291264092669632143617342
0.0285822097723891430098853
0.0280379932973965871612076
0.0274937607985048168557363
0.0269495131456586184404145
0.026405251135510610788204
0.0258609755014816908302855
0.0253166869228027870131204
0.024772386031083039326095
0.0242280734166726435807604
0.023683749633017635305432
0.023139415201283510675756
0.022595070613227494910058
0.0220507163346996860886495
0.0215063528075835064257149
0.0209619804525232530933998
0.0204175996702084666667432
0.0198732108435908244592483
0.0193288143387773531101104
0.0187844105068549933890143
0.0182399996845020451186059
0.0176955821955514652765729
0.0171511583514752478929477
0.0166067284527121293569163
0.0160622927890998849764781
0.0155178516410433755406961
0.014973405280008391868285
0.0144289539695279522835136
0.0138844979658362087382439
0.0133400375187955385486438
0.0127955728727478911660453
0.0122511042673960155596768
0.0117066319389997012395677
0.0111621561213422672981244
0.0106176770473701415076206
0.0100731949503839179893561
0.00952871006639354617417936
0.00898422263581499444540235
0.00843973290679908560996125
0.00789524113788219600307272
0.00735074760287745838233109
0.00680625259520694671222518
0.00626175643502492433600803
0.00571725947621484938132586
0.00517276211652106104876836
0.0046282648075995167641361
0.00408376806586726367326312
0.00353927248441614824420176