/*--------------------------------*- C++ -*----------------------------------*\
| =========                 |                                                 |
| \\      /  F ield         | OpenFOAM: The Open Source CFD Toolbox           |
|  \\    /   O peration     | Version:  2106                                  |
|   \\  /    A nd           | Website:  www.openfoam.com                      |
|    \\/     M anipulation  |                                                 |
\*---------------------------------------------------------------------------*/
FoamFile
{
    version     2.0;
    format      ascii;
    arch        "LSB;label=32;scalar=64";
    class       volScalarField;
    location    "4000/Helium";
    object      T;
}
// * * * * * * * * * * * * * * * * * * * * * * * * * * * * * * * * * * * * * //

dimensions      [0 0 0 1 0 0 0];

internalField   nonuniform List<scalar> 
3200
(
302.311591213088945551135
302.310758234853892645333
302.310628924973343600868
302.310388718832257382019
302.310249718820443831646
302.310102869366630784498
302.309987978608774028544
302.309889827418317054253
302.30981537797970304382
302.309761573946900625742
302.309728223161528148921
302.309713017448757454986
302.309713873400255579327
302.309728276377768452221
302.309753799050952238758
302.309788069261742293747
302.309828926107286406477
302.309874412939791454846
302.309922868992259736842
302.3099728318568963914
302.310023188776369806874
302.310072931770889681502
302.310121515754474330606
302.310170803538937889243
302.310219624383535119705
302.310265619423603311589
302.310308205350168009318
302.310347377266111834615
302.310383146957804001431
302.310415969298333038751
302.310445885928970710665
302.310473446065543612349
302.310498789134953767643
302.310522286134755631792
302.310544263752262850176
302.310564877870774580515
302.310584482493197810982
302.310603222501981690584
302.310621295444946099451
302.310638885379205476056
302.310656105796113024553
302.310673076466798647743
302.310689895608788901882
302.310706631819527956395
302.310723343011204633513
302.310740074807711152971
302.310756862486641693977
302.310773878261329628003
302.310790997613196395832
302.31080817801733928718
302.310825409628876059287
302.310842690411845978815
302.310860018830908302334
302.310877391974997863144
302.310894805966086096305
302.31091225570287406299
302.310929735098682158423
302.310947237854179547867
302.310964757382578227407
302.31098228689791085344
302.310999819928838405758
302.311017350393626657024
302.311034872288132646645
302.311052380197338607104
302.311069869297398327035
302.311087334922888203437
302.311104773071747331414
302.311122180054724140064
302.311139552674376318464
302.311156888132813946868
302.311174187491872089595
302.311191448245381252491
302.311208664225432585226
302.311225832481397901574
302.311242951306610393658
302.311260019174142144038
302.311277034360159632342
302.311293987158592244668
302.311310776133950639633
302.311326210411664305866
306.933772544365979229042
306.93216731809081920801
306.932010751631707989873
306.931380819553169203573
306.931008904841917228623
306.930598408949208533159
306.93027079391424649657
306.929983950986695617758
306.929759276938000311929
306.929589274375416607654
306.929474696338843386911
306.929410165118554232322
306.929390813206850907591
306.929410366509443974792
306.929462611102792379825
306.92954130830338499436
306.929640651450426958036
306.929755280113795379293
306.929880541468776300462
306.930012284543465739262
306.930147229261706343095
306.930282421845447515807
306.930415947019014311081
306.930547131774403624149
306.930674504075909680978
306.930796496473988099751
306.930912181795576998411
306.931021294565539392352
306.931123436606412724359
306.93121924080281814895
306.931308551379117943725
306.931392263683164856047
306.931470620890650025103
306.931544238958110781823
306.931613807161170370819
306.931679650860985475447
306.931742493030810692289
306.931802722504812663828
306.931860783554043337062
306.931917124497999793675
306.931972064563240110147
306.932025916878217230988
306.932078957432793231419
306.932131401314393315261
306.932183431763121461699
306.932235202460958589654
306.93228683777846299563
306.93233849183440042907
306.93239018845838472771
306.932441952357748959912
306.932493800692896002147
306.932545745542768145242
306.932597792777812628628
306.932649941517297520477
306.932702186178119063698
306.932754516970703662082
306.932806920497853298002
306.932859381663774911431
306.932911884158954762825
306.932964410654278708535
306.933016943911297857994
306.933069467468271795951
306.933121965000282216351
306.933174421184048696887
306.93322682220315300583
306.933279154760327855911
306.933331407010655311751
306.933383568021611154109
306.933435628064671618631
306.933487578480537649739
306.933539413055939348851
306.933591124236500036204
306.93364270450950925806
306.933694146985374118231
306.933745446027160141966
306.933796596167610459815
306.933847590991490505985
306.93389840038759075469
306.933948718159513191495
306.933994971504318982625
311.555525125511792339239
311.553896529922042191174
311.553545258637541337521
311.552732293930262130743
311.552169909807616932085
311.551571870178975132148
311.551068002388944933045
311.550619925889805017505
311.55025358012363767557
311.549963557703051719727
311.549752010791280554258
311.549613606840807733533
311.549542741569496229204
311.549531670846192810131
311.549572264307983004983
311.549656067054854702292
311.549774940324709859851
311.549921168187609055167
311.550087855605454478791
311.55026872450650898827
311.550458614554202085856
311.550652848800780247984
311.550848070634970099491
311.551041875671216985211
311.55123177598522943299
311.551415916843211562082
311.55159293568482326009
311.551762228223651618464
311.551922969202564672742
311.552075601701744744787
311.552219783158307109261
311.552356319026500841574
311.552485503114667153568
311.552607942638985605299
311.552724466963979921275
311.552835518751749077637
311.552941947722615623206
311.553044326348015147232
311.553143244968396174954
311.553239310572848808079
311.553333003709326476383
311.553424777122700106702
311.553515039786361739971
311.553604130258349869109
311.553692338771156755683
311.553779913410039625887
311.553867063496738865069
311.553953973474904159957
311.554040749345347194321
311.554127481008322320122
311.554214229923957191204
311.554301038039341165131
311.554387931787175602949
311.554474923857355861401
311.554562016749855501985
311.554649204766462844418
311.554736475210347634857
311.554823810927985050512
311.554911191748544752045
311.554998595042434317293
311.55508599701653338343
311.555173374145226716792
311.555260702768862302037
311.555347959812593217066
311.555435123910456240992
311.555522174433235704782
311.555609092396196047048
311.555695860080390957592
311.555782461286014495272
311.555868881425453764678
311.555955107979002605134
311.556041127796220280288
311.556126929502909206349
311.556212502183939250244
311.556297836137844115001
311.556382921787985651463
311.556467747569172388467
311.55655226253162481953
311.556635954246246456023
311.556712869257125930744
316.177044287820308454684
316.175600038969150773482
316.175133311021795634588
316.174240439847778816329
316.173559289745014666551
316.172839584275095603516
316.172209964781302460324
316.171639961999289880623
316.17115899309499127412
316.170765126704907288513
316.170462747275962556159
316.17024797321010964879
316.170115862795171324251
316.170058690236771781201
316.170067825453429577465
316.170133917772318454809
316.170247662578447034321
316.170399998561833854183
316.170582611526697291993
316.170787775667747609987
316.171008938862200920994
316.171240096851818179857
316.171476667068759525137
316.171714972311235669622
316.171951478158632653503
316.172183693664237580379
316.172409671833236188832
316.172628366365984220465
316.17283851808753070145
316.173040200305081270926
316.173232853679053278029
316.173416994333422280761
316.173592857056235061464
316.173760912959096458508
316.173921958383289165795
316.174076468671387374343
316.174225278800008709368
316.174369043501542364538
316.174508415267666805448
316.174644069894782205665
316.174776582119420709205
316.174906488112242186617
316.175034279076385246299
316.175160377826614421792
316.175285151269918060279
316.175408917416802978551
316.175531958644342012121
316.17565447817975154976
316.175776652635249774903
316.17589861947840290668
316.176020480677038904105
316.176142309774263594591
316.176264157366460949561
316.176386054202907871513
316.176508015485808300582
316.17663004413458338604
316.176752132697288288909
316.176874266208471908612
316.1769964244698485345
316.177118583158289766288
316.177240715158973216603
316.177362792538986013824
316.1774847867083053643
316.177606668903081299504
316.177728411725013302203
316.177849988524940272328
316.177971374172784635448
316.178092544926812479389
316.178213478582108564297
316.178334154905428476923
316.178454555698294825561
316.178574662354662905273
316.178694458848212889279
316.178813929957357231615
316.178933061799284587323
316.179051840625049862865
316.179170249499918554648
316.179288216253894461261
316.179405020534375125862
316.179512330984266554879
320.7984632591004015012
320.79723429086322994408
320.796722730573833359813
320.795813861497435937054
320.795072904445646599925
320.794285815258376715065
320.793578103290769831801
320.792926838185849192087
320.79236430512651168101
320.791891989176747301826
320.79151667381427159853
320.791236401514879617025
320.791047562019116412557
320.790943261902782523975
320.790915255994093513436
320.790954200423755082738
320.791050495770946326957
320.791194548595569813187
320.791377349105289340514
320.791590362275314873841
320.791826168798479557154
320.792077883257832127128
320.792340030716218279849
320.792608033095348218922
320.792877503415581941226
320.793145316002608069539
320.793408928223868770147
320.793666820037685738498
320.7939173186377388447
320.794160066076926796086
320.794394266208314547839
320.79462007622311148225
320.794837586159530928853
320.795047070694749891118
320.795249185358386512235
320.795444360352973944828
320.79563333327331520195
320.795816750881215284608
320.79599525817491212365
320.796169529254825647513
320.796340167715811730886
320.796507739498338196427
320.796672769239478384407
320.796835721144134367933
320.79699700364125192209
320.797156974905419701827
320.797315959068498614215
320.797474184233635696728
320.797631863245726435707
320.797789166568577456928
320.797946225875762138458
320.798103139708075559611
320.798259979047884371539
320.798416790955457145174
320.798573602934880000248
320.798730426890699618525
320.798887261633467460342
320.799044095831675349473
320.799200910820275112201
320.799357682278071024484
320.79951438156723497741
320.799670977963444329362
320.799827439465047973499
320.799983733125600338099
320.800139826745123627916
320.800295688726691878401
320.800451288735871457902
320.800606597822081766935
320.800761588413365643646
320.800916235083604988176
320.801070514527509658365
320.801224403107028138038
320.801377880117968288687
320.801530926020916467678
320.801683522811913462647
320.801835652664749432006
320.80198729325684325886
320.802138350865277516277
320.802287895214703894453
320.802425221770249663678
325.419879105214079118014
325.418839162054553071357
325.418317806748063958366
325.417426786848579922662
325.416665000271052576863
325.415849742219393192499
325.415101909250722655997
325.41440458060168339216
325.413791920254709566507
325.413268136809961106337
325.412842038699920976796
325.412513479288691087277
325.412280294605068320379
325.41213671510246285834
325.412075301834136098478
325.412087222945046960376
325.412163131973272811592
325.412293462848992930958
325.412469050867969144747
325.412681062041201585089
325.412921665802684856317
325.41318350581730101112
325.41346055808230630646
325.413747674251339958573
325.414039867477583811706
325.414333523016694016405
325.414625601891486894601
325.414914156765348707268
325.41519716322710564782
325.415473845643305139674
325.415743181141749573726
325.416004970898256942746
325.416259117658626109915
325.416505683183856945107
325.416745129399828329042
325.416977789072404902981
325.417204258699030106072
325.417425114088473492302
325.417640941627894335397
325.417852363250744929246
325.418059959095899102977
325.418264279865582011553
325.418465842113221242471
325.418665112641917858127
325.418862507748542611807
325.419058396340517447243
325.419253116390393643087
325.419446907034284777183
325.419639995800366705225
325.419832568658534910355
325.420024772821875558293
325.42021672100895557378
325.420408496444622414856
325.420600156560396953864
325.420791737031720458617
325.420983255870851280633
325.421174716297571194445
325.42136610961983933521
325.421557418238307946012
325.421748617774937883951
325.421939678430533149367
325.422130567207034346211
325.422321249278468258126
325.422511688306883570476
325.422701848063468332839
325.422891692724590484431
325.423081187463310470775
325.423270298823865687154
325.423458994525390153285
325.423647244461108130054
325.423835020781496041309
325.424022295369184121228
325.424209043180667322304
325.42439524061603606242
325.42458086581876841592
325.424765897168526862515
325.42495030712933612449
325.425133980147677448258
325.425315773688794251939
325.425482617325883438752
330.041364925161019527877
330.040466913092132017482
330.039947703578150139947
330.039088386233629535127
330.038328099788884628651
330.037509847607111623802
330.036748826816847213195
330.036032458062550176692
330.035395706998940568155
330.034844595054551064095
330.034389318899400223017
330.034031114066806367191
330.033769037544402635831
330.033598386417736492149
330.033512610987997959455
330.033503581942397886451
330.033562473233359924052
330.033680064209079318971
330.033847377707786563406
330.034055632485603837267
330.034296925543060297059
330.034563754917030564684
330.034849839713558594667
330.035149738718018852524
330.035458106243595466367
330.035771020603249326086
330.036085096175099806715
330.036398052409140291275
330.036707606215259147575
330.037012624226576917863
330.037311893522598893469
330.037604904138561323634
330.037891366689621008845
330.038171143491467773856
330.038444491009158809902
330.03871161980350734666
330.038972970093652747892
330.039229011669021929265
330.03948024115805992551
330.039727197168133443483
330.039970400578170028894
330.040210354045427720848
330.04044753488022934107
330.040682381921442356543
330.040915291419423738262
330.041146617784875161306
330.041376689169567271165
330.041605737754366600711
330.041833987959194018913
330.042061625029191418434
330.042288797481660367339
330.042515620330505043967
330.042742179281390235701
330.0429685342489847244
330.043194722929285944701
330.043420764653035348601
330.043646663379661276849
330.043872410404730999289
330.044097987290967921581
330.044323368262951134966
330.044548521599779178359
330.04477341166085579971
330.044998000626378598099
330.045222248915877116815
330.045446116600999175716
330.045669564022034592199
330.045892552323664403957
330.046115044082796430303
330.04633700292453113434
330.0465583945933758514
330.046779187252980136691
330.04699934892630608374
330.047218850768103948212
330.047437665580162047263
330.047655768106380946847
330.04787313339744514451
330.048089729063235608919
330.048305417496976588154
330.04851884123792160608
330.048714574552150224918
334.66293156777970807525
334.662153764137201505946
334.66164553863887931584
334.660823124176488363446
334.66007619153384666788
334.659269631677204870357
334.658512851093803419644
334.65779637357138653897
334.657155118742423383082
334.656596078117615888914
334.656130170435631043802
334.655759481644111019705
334.655483909833378675103
334.655299572954845643835
334.655200686748742100463
334.655179803100168101082
334.655228677953914484533
334.655338562028191518039
334.655500836016358334746
334.655706973476469556772
334.655949213040230461047
334.65622013093587838739
334.656513404768929831334
334.656823509195817223372
334.657144936757731557009
334.657473623916359883879
334.657805991756447383523
334.65813953497405464077
334.658471814277959310857
334.658801421352166016732
334.659127004517415571172
334.659447808519587397313
334.659763372850079576892
334.660073391851994983881
334.660377931984783117514
334.660677079164486258378
334.660971122424712120846
334.661260413472291475045
334.661545345987008204247
334.661826360959651083249
334.662103900154306757031
334.662378398273062884982
334.662650273470262618503
334.662919915868769749068
334.663187681609258561366
334.663453891754102187406
334.663718846606457191228
334.663982755528024881642
334.664245825320108451706
334.664508227042404087115
334.664770098208634863113
334.665031545324325179536
334.665292647276260140643
334.665553458533679531683
334.665814012268242549908
334.666074323786858712992
334.666334393458043905412
334.666594209191828213079
334.666853749130495998543
334.6671129841127481086
334.667371879107975018997
334.667630394952198003011
334.667888490227085185325
334.668146121849758856115
334.668403246224784197693
334.66865982004213719847
334.668915800728314025037
334.669171147310350988846
334.669425819898663121421
334.669679780659919288155
334.669932994351768229535
334.670185425810416290915
334.670437043065476245829
334.670687815949236210145
334.670937716419985008542
334.671186716826241536182
334.671434780451193091722
334.671681747466777778754
334.671926042517270616372
334.672149899338705836271
339.284614391530112698092
339.283939440724850555853
339.283447494546180678299
339.282662446537585765327
339.281934313103022304858
339.28114702537942548588
339.28040478861527162735
339.279700450550478763034
339.279068356810000750556
339.278515820266477476252
339.278053919658930226433
339.277685092116769283166
339.277409673632405429089
339.277224291296022329334
339.277123705585836432874
339.277101011110858053144
339.277148479386767121468
339.277257827428741165932
339.277420836389353553386
339.277629317060529956507
339.277875755631725951389
339.278152935198249906534
339.278454629319355717598
339.278775362068245158298
339.279109605984444897331
339.279453281339613113232
339.27980274578482067227
339.280155368517000624706
339.280508646930741178949
339.280860984166508842463
339.281210943327323548147
339.281557594717469328316
339.28190034144398623539
339.282238749120210741239
339.282572724927717899845
339.282902242697900874191
339.283227458146939170547
339.283548609245144689339
339.283865987486933590844
339.284179935171721353981
339.28449080840817941862
339.284798965597644837544
339.28510475625586195747
339.285408510624733935401
339.285710532934274397121
339.286011099138875124481
339.286310469973329873028
339.286608820714207013225
339.28690633015020239327
339.287203145377759483381
339.287499383690828835825
339.287795134686746223451
339.288090462969250893366
339.288385410970306566014
339.28868000168125718119
339.28897424162840934514
339.289268123617432593164
339.289561628964918327256
339.289854729876026340207
339.290147391817129118863
339.290439574976630865422
339.290731235705095514277
339.291022328323265355721
339.291312805888424009026
339.291602621096842540283
339.291891727150698443438
339.292180078070714444038
339.292467629746624879772
339.292754339378234362812
339.293040166218474951165
339.293325072281845677935
339.29360901996773236533
339.293891974985513115826
339.294173904982471867697
339.294454779899865570769
339.294734570158368569537
339.295013235392957540171
339.295290593429228920286
339.295564847789592022309
339.295815911683121157694
343.906458504964689382177
343.905866058131039153523
343.905390870052599439077
343.904640223921489905479
343.903932267758079888154
343.90316725698613709028
343.902444989306218303682
343.901760122716098067031
343.901146153249840153876
343.900610263845123881765
343.900163276845887594391
343.89980757623021645486
343.89954358284410318447
343.8993681329089895371
343.899276290958255231089
343.899261511094550769485
343.899316451097604385723
343.899433214462590058247
343.899603944117473020015
343.899820787537294108915
343.900076503541754391335
343.90036413444016716312
343.9006776242676437505
343.901011602700009461842
343.901360613114832176507
343.901720642460077215219
343.902088079895122518792
343.902460246580062630528
343.902834647961526570725
343.90320957512398081235
343.903583552535224043822
343.903955540623940123623
343.904324844558800577943
343.904690940424757172877
343.905053612507458637992
343.905412743084639259905
343.905768378791435679886
343.906120658211023055628
343.906469780787119816523
343.906815998230911191058
343.907159584327928314451
343.907500821993210138316
343.907839991209016261564
343.90817735942391664139
343.908513174675533718982
343.908847662786740784213
343.909181039353768483124
343.909513439571412618534
343.909845008388913356612
343.910175863261997619702
343.910506095690323036251
343.910835773053634056851
343.911164940809612744488
343.911493624930926671368
343.911821834312149803736
343.912149563333798596432
343.912476794382200750988
343.912803499836854825844
343.913129644128730433295
343.913455185919815448869
343.91378007955239581861
343.914104276249986469338
343.914427725702921634365
343.914750376967049305676
343.915072179158642029506
343.91539308232103167029
343.915713037553643971478
343.916031998159553495498
343.916349919148046865303
343.916666757681412036618
343.916982473845848744531
343.917297028476696141297
343.917610385908403713984
343.917922512551967884065
343.91823337725554665667
343.918542949429991040233
343.918851185873506892676
343.91915788197076153665
343.919461016683442267095
343.919738209069123513473
348.528499308225661934557
348.527970999418641895318
348.527510482857508122834
348.526789422561478204443
348.52610068809138965662
348.525358272755340749427
348.524658368761265592184
348.523997049957586114033
348.523406842118333770486
348.522894496476510539651
348.522470295223172342958
348.522136271090062109579
348.521892654698149272008
348.521736241417215751426
348.521662183402952450706
348.52166411277738689023
348.521734927311797491711
348.521867005671026618074
348.522052771605444831948
348.522284659519016258855
348.522555673508350082557
348.522859114057155238697
348.523189134922347420797
348.523540434845017443877
348.523907694558999992296
348.524287014549656760209
348.524674873253729856515
348.52506859494616264783
348.525465738441880603204
348.525864541890143755154
348.526263525746003324457
348.526661592393054434069
348.52705798426717365146
348.527452122055706240644
348.527843702459051655751
348.528232539131693101808
348.528618595364719112695
348.52900192944650825666
348.52938266410495771197
348.529760974029443332256
348.530137060479376032163
348.530511138164342810342
348.53088342299719215589
348.531254123120561416727
348.531623432246419724834
348.531991526774845624459
348.53235857697495703178
348.532724676947566422314
348.533089936407804998453
348.533454441523133482406
348.533818256114102496213
348.534181423312475089915
348.534543967442402845336
348.534905896125167146238
348.535267202416036980139
348.535627867026619242097
348.535987860636794266611
348.536347145661522972659
348.536705678017369791633
348.537063409069958197506
348.537420287024815479526
348.53777625796584516138
348.538131267147434755316
348.538485259951869466022
348.538838182424512979196
348.539189982110542587179
348.539540607984008602216
348.539890011584191142902
348.540238146658111872966
348.540584969320093478018
348.540930438752923237189
348.54127451527267567144
348.541617162946067765006
348.54195834806779430437
348.542298039479533144913
348.542636206638007934089
348.542972804430974065326
348.54330760571644987067
348.54363836129647324924
348.543940430035377175955
353.150765324814699397393
353.150285900292203677964
353.149837120868312467792
353.149140311938310787809
353.148468825380746238807
353.147748036052519182704
353.147071284883793396148
353.146435714902906966017
353.145872840512140555802
353.145388775495746358501
353.144993077051481122908
353.144687219423474289215
353.144471045001466791291
353.144341118628688036551
353.144292506293709266174
353.144318862265265579481
353.14441318803847025265
353.144568022845930954645
353.144775975960556024802
353.145029695975722461299
353.145322376608078229765
353.145647543362485976104
353.145999611523279781977
353.146373145086613476451
353.146763096210463572788
353.147165685778645638493
353.147577501487830886617
353.14799589607224561405
353.148418502448123490467
353.148843545683462252782
353.14926956383305878262
353.149695438240769362892
353.150120376880295225419
353.150543771745162757725
353.150965262347256157227
353.151384615377025966154
353.151801734866637616506
353.152216618921102053719
353.152629330878539803962
353.153039984483541502414
353.153448721864435810858
353.153855700820372476301
353.15426108287186934831
353.154665024833889219735
353.155067672525319721899
353.155469158079370117775
353.155869610545664727397
353.15626908612250645092
353.156667661764231525012
353.157065394285211823444
353.157462321302375585219
353.157858462756905737479
353.158253822634208063391
353.158648390830535390705
353.159042145071794038813
353.15943505285815717798
353.159827073612177628092
353.160218160270233056508
353.160608260797118873597
353.160997319908801728161
353.161385280364754635229
353.161772083914911490865
353.162157672295506927185
353.162541988171767570748
353.16292497555082263716
353.163306580583707727783
353.163686751315992751188
353.164065438706586519402
353.164442596450953715248
353.164818180918928192114
353.16519215164811384966
353.165564469691275917285
353.16593510012864953751
353.166304010434146221087
353.166671170688800884818
353.167036551578178205091
353.167400107093953920412
353.167761587456482175185
353.168118511595935160585
353.168444020955917039828
357.773280250870982399647
357.772837453629392712173
357.772397513439557314996
357.771719950695967327192
357.77106362211497980752
357.770363186902613961138
357.769709814420991733641
357.769101384400528331753
357.768568388179232897528
357.768116149338425202586
357.767753378715497092344
357.767480850864444619219
357.76729788393851094952
357.767200676698507777473
357.767184079073558677919
357.76724164449495901863
357.767366363735163758975
357.76755083366583676252
357.767787756426514533814
357.768069916660010676424
357.768390631399597623385
357.768743600533298376831
357.76912358955928539217
357.769524629199281662295
357.769942232455377961742
357.77037267676297460639
357.770812646465003581397
357.77125952901332084366
357.771711034003374152235
357.772165396554726157774
357.772621182875980139215
357.773077276694777992816
357.773532871978090952325
357.773987351148946345347
357.774440320637722834363
357.774891518750564500806
357.775340811148453212809
357.775788154704400767514
357.77623357060519992956
357.776677128228641322494
357.777118925464321819163
357.77755907657558509527
357.777997700803609859577
357.778434914425133683835
357.778870824863417965389
357.779305528287750348682
357.77973911976795307055
357.78017162401920359116
357.780603090778924979531
357.78103355235521121358
357.781463024422578200756
357.781891507427928900142
357.782318988247652669088
357.782745441922486406838
357.783170833422104806232
357.783595119357926250814
357.784018250012934458937
357.784440170819834747817
357.784860823666633677931
357.785280148428739721567
357.78569808413601549546
357.786114569884887259832
357.786529545580151534523
357.786942952805190998333
357.787354735141832406953
357.787764838938983302796
357.788173212936328582146
357.78857980908810532128
357.788984582563784897502
357.78938749157191523409
357.789788497463973726553
357.790187563520476032863
357.790584657288491143845
357.790979748872359778034
357.791372810985876640189
357.79176381683430463454
357.792152720577632862842
357.79253924960875110628
357.792920687192179229896
357.79326801013502290516
362.396064482814779239561
362.395648602810183547263
362.395215003674252329802
362.394552451019649197406
362.393909627681523488718
362.393228624165374185395
362.392599018574742331111
362.392019089988139057823
362.391518290973010607559
362.391101024079489434371
362.390775065886089123524
362.390540391094589267595
362.390395699934288131772
362.390336729874093180115
362.390358020651547121815
362.390452931871948294429
362.390614352594582214806
362.390834851381271164428
362.391107141557768045459
362.391424070422146996862
362.391779012781796609488
362.392165779147717330488
362.392579283856605343317
362.393013417969939382601
362.393463875513020866492
362.393927024719289420318
362.394399646944577852992
362.394879166759949384868
362.395363363886929164437
362.395850494820422227349
362.396339156948613435816
362.396828249455552395375
362.397316966071514343639
362.397804692570900897408
362.398291020555745944876
362.39877567515742384785
362.399258501108988639317
362.399739430959130004339
362.400218459860070652212
362.400695628785399549088
362.401171006454831058363
362.40164467771438694399
362.402116732766444329172
362.402587259637982697313
362.403056338658643653616
362.403524040325180521904
362.403990435018897642294
362.404455524632112428662
362.404919339434286484902
362.405381894221022776037
362.405843189079575950018
362.4063032107004005411
362.406761934012365600211
362.407219323876063299394
362.407675336768988927361
362.40812992230706868213
362.408583025178643310937
362.409034586581867642963
362.40948454536453482433
362.409932839409407279163
362.410379406667800594732
362.410824186069191910065
362.411267118082491833775
362.411708145475301989791
362.412147213562263914355
362.412584270944705622242
362.413019269069138772466
362.413452162819908153324
362.413882910665336112288
362.414311474521866784926
362.414737819077402036783
362.41516191162173754492
362.415583723760846623918
362.416003229782347716537
362.416420406533461573417
362.416835231110724180326
362.417247658913993291208
362.417657394172522344888
362.418061480615335767652
362.418428794315275354165
367.019136273707374584774
367.018739674544121953659
367.018310428131769640459
367.017659608350811595301