/*--------------------------------*- C++ -*----------------------------------*\
| =========                 |                                                 |
| \\      /  F ield         | OpenFOAM: The Open Source CFD Toolbox           |
|  \\    /   O peration     | Version:  2106                                  |
|   \\  /    A nd           | Website:  www.openfoam.com                      |
|    \\/     M anipulation  |                                                 |
\*---------------------------------------------------------------------------*/
FoamFile
{
    version     2.0;
    format      ascii;
    arch        "LSB;label=32;scalar=64";
    class       volVectorField;
    location    "1000/Helium";
    object      U;
}
// * * * * * * * * * * * * * * * * * * * * * * * * * * * * * * * * * * * * * //

dimensions      [0 1 -1 0 0 0 0];

internalField   nonuniform List<vector> 
3200

0.999690626488071720778805 -3.56936063734651812349042e-06 0
0.99982551546444897727639 2.44453294407060710318391e-06 0
0.999854592991130219914453 3.49870098581013760327988e-06 0
0.999839566967846482548055 3.16654985600247513229696e-06 0
0.999833528525646997309195 3.49727478803790809211557e-06 0
0.999833523388134359777268 4.03776056269275817136883e-06 0
0.999832998018107432791624 4.47705779734511170772334e-06 -1.47801624394034447648337e-42
0.999831810386856090211438 4.84629232220098945675734e-06 -1.47616641486948798722147e-42
0.999830733933270932034532 5.18592338440446065959489e-06 0
0.999829842836126303495803 5.49656041322924046301163e-06 0
0.99982904580914888637011 5.77586574145275877023619e-06 0
0.999828319779407115319714 6.02662782415278881737548e-06 0
0.999827665432327705730131 6.25240964779489510948305e-06 0
0.99982707728080755238409 6.45601940375779027181261e-06 -2.95573893529149573530089e-42
0.999826547248111263677117 6.63982703846050764770644e-06 -2.95605725645631606481062e-42
0.999826068644684262665123 6.80594200017501418367369e-06 0
0.999825636058260358574046 6.95619580433477454391861e-06 0
0.999825244831016091140441 7.09214720525462515937848e-06 0
0.999824890950639755260454 7.21512024260181787703537e-06 0
0.999824571004661932782653 7.32624276358819540814083e-06 0
0.999824282091863802968135 7.42647853185563044790297e-06 0
0.999824021732111600790915 7.51665493478746087139403e-06 0
0.999823787792609497415697 7.59748680328829548163852e-06 0
0.999823578427237458221555 7.66959633689069459532104e-06 0
0.999823392025935619997767 7.73352945379948618852793e-06 0
0.999823227172961015440933 7.78976915221825440293658e-06 0
0.999823082612933178303649 7.83874634976816688229813e-06 -7.23517271415654544024156e-32
0.999822957223300279316902 7.8808486897820874498297e-06 -6.20330086619138343180783e-32
0.999822849992066386981548 7.91642764704280835338576e-06 5.2229464252311652978802e-32
0.999822759999735355407324 7.94580430452945293405987e-06 4.28982360732897191394373e-32
0.999822686404710725405209 7.96927401124268080460488e-06 0
0.99982262843144886765856 7.98711019407413790136691e-06 0
0.999822585360844340307551 7.99956743790126843145563e-06 0
0.999822556522352412500254 8.00688403425762660302334e-06 0
0.999822541287550992095134 8.00928404599830303137956e-06 0
0.999822539064848192502666 8.00697904444786820292185e-06 0
0.999822549295107609879096 8.00016952016190658453741e-06 0
0.999822571447980479319995 7.98904609819549627633233e-06 0
0.999822605018851118252599 7.97379052314638024244117e-06 0
0.999822649526254991769747 7.95457653563435329092425e-06 0
0.99982270450969978892175 7.93157058222896890493231e-06 0
0.999822769527760835117647 7.90493246948343754429596e-06 0
0.999822844156448287122885 7.87481589480030195766364e-06 0
0.99982292798778904518997 7.84136895383848589252077e-06 0
0.999823020628555103606061 7.8047345590755872103304e-06 0
0.999823121699127681516472 7.76505085185532211995273e-06 0
0.999823230832432741088667 7.72245155125634888631896e-06 0
0.999823347673014506398204 7.67706631239117202132518e-06 0
0.999823471876093328170043 7.62902104047403883106031e-06 7.41078423005667086508806e-32
0.999823603106712366361819 7.57843822767945172536649e-06 7.79505235755045112367263e-32
0.999823741038837532357775 7.52543726200716488655739e-06 1.63224194489955898504291e-31
0.999823885354528152369369 7.47013477456483968150349e-06 1.70193160611281544870017e-31
0.999824035742994166042763 7.41264497937971870706979e-06 0
0.99982419189967042250089 7.35308005734174383846756e-06 0
0.999824353525152864641257 7.29155056644872610915366e-06 0
0.999824520324103183099851 7.22816590243492587095379e-06 -1.18378715779640265422658e-41
0.999824692003906556614368 7.16303482705344871773025e-06 -1.18379545342191696528963e-41
0.999824868273278877239818 7.09626605600478217803894e-06 0
0.999825048840535135497021 7.02796896254190219151259e-06 0
0.99982523341170748132356 6.95825437323201028696432e-06 0
0.999825421688210425053001 6.88723552147810467056197e-06 0
0.999825613364235921132206 6.81502914528326065706767e-06 0
0.999825808123639858671083 6.74175679003287815467885e-06 0
0.999826005636306081036935 6.66754631579889827351377e-06 0
0.999826205553930424940745 6.59253366078736509543236e-06 0
0.999826407505110981155383 6.51686484226893165586742e-06 0
0.999826611089787098407555 6.44069826563780222519967e-06 1.1643551301491276055329e-31
0.999826815872904228754692 6.36420724189020652826173e-06 1.16867582689157223191497e-31
0.999827021377354019371353 6.28758283308756842127024e-06 1.1699891340522607305677e-31
0.999827227076365065983055 6.21103683224431914108041e-06 1.16796387026525402856785e-31
0.999827432385053338492753 6.13480512891800761402211e-06 0
0.999827636651475448736903 6.05915144423186424510637e-06 0
0.999827839145246310970094 5.9843724837548419463241e-06 0
0.999828039044420191494567 5.9108058877339194088084e-06 0
0.999828235398102505016027 5.83884871713845210195728e-06 0
0.999828427132073649374888 5.76898525873411736235915e-06 0
0.999828612567115970755083 5.70193473025448255606757e-06 0
0.99982879114860068181514 5.63857111352696823986918e-06 0
0.999828949895592122842913 5.58252686666498117629056e-06 0
0.999829143357498062449906 5.53279848552701553727421e-06 0
0.99844225549982601464194 -3.95297599885327098650665e-06 0
0.998577574514717070108816 4.12298320692038051526063e-06 0
0.998604941202335671945889 4.49989399537102354115561e-06 0
0.998589782654677016182632 3.54245728819576417080754e-06 0
0.998583914634725844372554 3.88608805425990106873109e-06 0
0.998583874374917912497551 4.4872707733053036796133e-06 0
0.998583273819509731339394 4.89721820453705008064629e-06 0
0.998582046938089940013583 5.22101301691952484495705e-06 0
0.998580948940218093845544 5.52495332394761114305553e-06 0
0.998580040953621184129929 5.80374516982668538082109e-06 0
0.998579231192581628917537 6.05250809826701232746167e-06 0
0.998578496744115029493116 6.27517908094503380967604e-06 1.11585033044581685225778e-30
0.998577837281046321038502 6.47587518087519454498347e-06 1.00733055852110849916867e-30
0.998577246394313666755238 6.65718825189625680984265e-06 0
0.998576715435059214520663 6.82115532283999192623763e-06 0
0.99857623730881139856308 6.96958708982563372892746e-06 0
0.998575806283379496797181 7.1040277966781791648028e-06 0
0.998575417453384517330051 7.22576580284520394710599e-06 0
0.99857506661845418793888 7.33588642375189920369393e-06 0
0.9985747502217554583126 7.43531410935822042633037e-06 0
0.998574465249675857769773 7.52484181765613279851664e-06 0
0.998574209133746060196302 7.6051548005648210359019e-06 0
0.99857397967110528291812 7.67685040810629906260845e-06 0
0.998573774959486404334541 7.74045409060173808600113e-06 0
0.998573593343351717521728 7.79643215448204980990484e-06 0
0.998573433369755236732601 7.84520201816139385651936e-06 0
0.998573293752589630223326 7.88714043546165972269676e-06 -3.2578575667082166559929e-31
0.99857317334370210293315 7.92259014542498470154864e-06 -4.62087074826939579045823e-31
0.998573071109594923022712 7.95186520888325635908131e-06 -7.70204826354635260216742e-32
0.998572986112581939543986 7.97525535925198389734445e-06 6.23435594781545292497498e-32
0.99857291749558529936337 7.99302950257153467365258e-06 0
0.998572864469817411681163 8.00543860840453522231819e-06 0
0.998572826304794602947368 8.01271804307207220795847e-06 0
0.998572802320166430511961 8.0150895283106889869628e-06 0
0.998572791879044685536826 8.0127627244933683755895e-06 0
0.998572794382514339339707 8.00593659113274461072794e-06 0
0.998572809265112604215631 7.99480048527840961910401e-06 0
0.998572835991025420376843 7.97953513746546438836597e-06 0
0.998572874050928871447752 7.96031343064147716554173e-06 0
0.998572922959320097291425 7.93730112479454703768977e-06 0
0.998572982252260765712037 7.91065743022929380274481e-06 0
0.998573051485409313166031 7.88053556513275327885092e-06 0
0.99857313023233262860856 7.84708319456261583265538e-06 0
0.99857321808304222443553 7.8104428769208119530355e-06 0
0.998573314642680065489344 7.77075242191900225109669e-06 0
0.998573419530348727057856 7.72814526485541480676448e-06 0
0.998573532378017714172813 7.68275077650966025960989e-06 0
0.998573652829567892652562 7.63469460186811913371841e-06 0
0.998573780539828037561279 7.58409895249894089981017e-06 1.22639716780558296309072e-31
0.998573915173702642000819 7.5310829395363952965827e-06 1.28718080423807215730259e-31
0.998574056405257537427644 7.47576287512071380929411e-06 2.69015056263895486038069e-31
0.998574203916875458020286 7.41825263182612266066492e-06 -2.87456656167626943937594e-43
0.998574357398304024435731 7.35866399069960980662639e-06 -2.90486105085638160068335e-31
0.998574516545731372119121 7.29710705101598545931248e-06 0
0.998574681060711566438215 7.23369066837962016792204e-06 0
0.998574850649080802966751 7.16852295731596807502927e-06 0
0.998575025019612483312414 7.10171187242697490014411e-06 0
0.998575203882642759012356 7.03336585944053527274817e-06 0
0.998575386948353349580998 6.96359464363530167204915e-06 0
0.998575573924908588274718 6.8925101228851381554596e-06 0
0.998575764516150043981213 6.82022744451921972763057e-06 0
0.998575958419025799805979 6.74686624765003743737059e-06 0
0.998576155320519354141595 6.6725521348042913228585e-06 0
0.998576354894060269629108 6.59741837806959402452445e-06 0
0.998576556795358283302733 6.52160790117451856485152e-06 0
0.998576760657556516953548 6.44527552010276295896144e-06 0
0.99857696608572044105756 6.36859050821533798666767e-06 5.66115647687638502548863e-31
0.998577172650567557177226 6.29173935638434318848734e-06 5.67618914968415354986935e-31
0.998577379881455229337917 6.21492887103822469783499e-06 5.67597713010343519990966e-31
0.998577587258837606754014 6.13838935525389218985249e-06 5.65879882632784110582596e-31
0.998577794205930291404627 6.06237822753278253316454e-06 0
0.998578000080040051322783 5.98718409441234341049126e-06 0
0.998578204161817972739357 5.91313280167422896787264e-06 0
0.998578405644234834426243 5.84059744992501756930513e-06 0
0.998578603597630953814246 5.77002349099687826560791e-06 0
0.998578796997255491163514 5.70196620979245811464695e-06 0
0.998578984209156361728787 5.63729970880526703053701e-06 0
0.998579165183013262030443 5.57708282632524254260114e-06 0
0.998579326419620105781405 5.52612658884725127983635e-06 0
0.998579531051652313777822 5.48155828477188930591187e-06 0
0.995943422641911713100171 -2.12314804221767523275365e-06 -1.09223699826631206674703e-29
0.996079414076484814799528 4.02790705551538892782585e-06 3.13666924598903085995139e-29
0.996105515815849607008658 4.62779837029653246156542e-06 0
0.996090222219959131599865 3.96729962797101456880048e-06 0
0.996084482155459638441641 4.33596798527908198778863e-06 0
0.996084386675011868028662 4.89921233525760812431643e-06 0
0.996083699689640944541225 5.27303994133665843120152e-06 0
0.996082424688182754834997 5.56267772560521065052614e-06 0
0.996081297317906511068486 5.83291529486054850664814e-06 0
0.996080365993581295924741 6.07967231755778035953708e-06 0
0.996079538676763465154806 6.29917456196772594998043e-06 0
0.996078792474737295670195 6.49571769524063003393424e-06 9.88389164446268484859609e-31
0.996078125824355176121117 6.67329283566991123368469e-06 8.94760231971756394377504e-31
0.996077531220894707431057 6.83419070773996967428253e-06 0
0.996076999298357912415725 6.98011588314225114203703e-06 0
0.996076522421571519672057 7.11255392421618444026782e-06 6.71313506113604016303583e-31
0.996076094414792612141696 7.23274659815100062770646e-06 6.10505461923511565023462e-31
0.99607571001723627102109 7.34171419231911560741204e-06 0
0.99607536474766955603144 7.44031277618542008061566e-06 0
0.996075054825282024673072 7.52927456747022337725387e-06 0
0.996074777056016991139131 7.6092330783594560659317e-06 0
0.996074528725084284985769 7.68074223872444961048675e-06 0
0.996074307510191436776381 7.74429168883270034173111e-06 0
0.996074111410849671877088 7.80031865966179162211018e-06 0
0.996073938690122728800702 7.84921715570783645700079e-06 0
0.996073787827104872860673 7.89134520160409723486643e-06 0
0.996073657478549923105504 7.92703059133983574369685e-06 -5.66485033731013238146441e-31
0.996073546447939772718883 7.95657551438723814542404e-06 -6.32176965916805840127141e-31
0.996073453660584418045687 7.98026026449690798413809e-06 -1.28645755224784882113411e-31
0.996073378143516152682935 7.99834627578590806281679e-06 0
0.996073319009288526970636 8.01107857780583066959618e-06 0
0.996073275442860173178872 8.01868784265723883678684e-06 0
0.996073246690970415251343 8.02139205401191368041084e-06 0
0.996073232053447221723275 8.01939792522669039594521e-06 0
0.996073230876119652954515 8.0129020605256756680599e-06 0
0.996073242544981418689076 8.0020919679980303190021e-06 0
0.996073266481383279291606 7.98714688894855999381096e-06 0
0.996073302137992611093864 7.96823854880532998930503e-06 0
0.996073348995435758901351 7.94553176393873243047068e-06 0
0.996073406559460083897761 7.91918501832029025748211e-06 0
0.996073474358534549644162 7.88935092751623839911826e-06 0
0.996073551941758172922903 7.85617669634455311172393e-06 0
0.996073638877068900931988 7.81980448937660413747091e-06 0
0.996073734749685857359225 7.78037180814831408001437e-06 0
0.996073839160718010887763 7.7380118078995604449441e-06 0
0.99607395172592505527831 7.69285362471957903109619e-06 0
0.996074072074562444356616 7.64502266184104061950109e-06 0
0.996074199848377306309999 7.59464090038928598579626e-06 -4.89818251029426233441118e-31
0.996074334700596919489612 7.54182718111771531276479e-06 -5.14522447690403267456582e-31
0.996074476295019994864788 7.48669752740045331553887e-06 0
0.996074624305071543162171 7.42936544641798850941534e-06 0
0.996074778412932904103627 7.36994229479101849980462e-06 -2.90881484104270295838525e-31
0.996074938308567636724433 7.30853763762320495487625e-06 -9.02934639217004156483132e-31
0.996075103688787044653452 7.24525967904477486466585e-06 -6.21065574384024644811587e-31
0.996075274256166154351888 7.18021572535098383775623e-06 0
0.996075449717959360285136 7.11351272452061498147722e-06 0
0.996075629784763383334223 7.04525789108852505102142e-06 -6.71947393639691710153908e-31
0.996075814169155915323017 6.97555941965208919968095e-06 -6.86749348994041068147905e-31
0.996076002584004638329418 6.90452733970905539859133e-06 0
0.996076194740633247270978 6.83227450978568612792972e-06 0
0.996076390346565920808075 6.75891779065034273076907e-06 0
0.996076589103007559167224 6.68457943938016699758804e-06 0
0.996076790701841852104792 6.60938871537999975543055e-06 0
0.996076994822121086770039 6.53348378680036021313787e-06 7.50956961766399996106282e-31
0.996077201125984634799693 6.45701389438950722502938e-06 7.56958695060546666253794e-31
0.996077409253907419817153 6.38014182534448714539379e-06 0
0.996077618819282140094629 6.30304669250946238021277e-06 3.81958169119825711975246e-31
0.996077829402241210488 6.22592692713042351442812e-06 3.82258705335593084180507e-31
0.996078040542730969164609 6.14900357634173477322992e-06 3.81455274818007906479363e-31
0.996078251733080954899435 6.07252367667520448268415e-06 -3.7941837535247773682498e-31
0.996078462409844433977923 5.9967640216897640751282e-06 -7.5199926660848757721386e-31
0.99607867194558130652382 5.92203549875137246350908e-06 0
0.996078879639160308379076 5.84868965430644504471542e-06 0
0.996079084707927830955043 5.77713026807463316089804e-06 -7.11125853321039948945321e-31
0.996079286257526508308047 5.70784243218222599359915e-06 -6.88799912881081678028395e-31
0.996079483338586202378906 5.64143943622710669492026e-06 0
0.996079674409843018878519 5.57889352240007745136396e-06 6.2214813618916628157018e-31
0.99607986002614323783888 5.52144794691457223084156e-06 5.71998996440691236029177e-31
0.996080026220183434304545 5.47402219241629684273612e-06 0
0.996080245610893366681182 5.43355837939500011088325e-06 0
0.992193877057228057481097 -7.78838505952269466632316e-07 -3.61866361292647840290112e-30
0.99233071178718446070377 3.87727956828383621016914e-06 2.25625265414008638988629e-29
0.99235605659481440632419 4.83821295909655985426328e-06 0
0.992340618718940303821796 4.47413044030416313571021e-06 0
0.992334987938265911111557 4.80063214033454450485041e-06 0
0.992334873330916189537731 5.30159944783149877846774e-06 0
0.992334129019158850404381 5.64098077421876468187873e-06 0
0.992332821452507563009249 5.89725421043663953016029e-06 0
0.992331675073292784894363 6.13229874862029645930144e-06 0
0.992330728454514199299297 6.34612314180549538810729e-06 0
0.992329889814217214194514 6.5361541943529508536144e-06 0
0.992329136793843269437332 6.70654771254381499342567e-06 0
0.992328467091502242070078 6.86104427295093479089111e-06 0
0.992327872439956570893571 7.00164220710434209086863e-06 0
0.992327342967686210073452 7.12970306588388661481279e-06 0
0.992326870639255731454398 7.24636768931858665142515e-06 5.70822754192032290457703e-31
0.992326448927802640120888 7.35256252839891624251481e-06 5.21013002498112883777297e-31
0.992326072275171000569571 7.44903194438563292828666e-06 0
0.992325735953337173533839 7.5363968192361053136997e-06 0
0.992325435975286551659735 7.61519241261014192650699e-06 0
0.992325168973401394723055 7.68588915040484214739359e-06 0
0.992324932086326438884782 7.74890684788434686513202e-06 0
0.992324722867580777396768 7.80462526385390370357083e-06 0
0.992324539210972411673595 7.85339170499999485056206e-06 0
0.992324379289181934815645 7.89552652794234980455825e-06 0
0.992324241503667270336564 7.93132729558472738184624e-06 0
0.99232412444420559083369 7.96107198851104073402622e-06 -1.15514578790741191394603e-42
0.992324026856251095729533 7.98502156090627110678754e-06 2.30344174174504714919214e-42
0.992323947614641599379581 8.00342198495278037118604e-06 1.99402815318359426861952e-31
0.992323885702348862380973 8.01650594514796066482765e-06 1.4792996888749089619073e-31
0.992323840193337747273006 8.02449422658509225873315e-06 0
0.992323810238673997830006 8.02759690344236158659075e-06 0
0.99232379505525736274052 8.02601432916849994142049e-06 0
0.992323793916596308406497 8.01993800608946201199673e-06 0
0.992323806145270048695295 8.0095513150582174649204e-06 0
0.992323831106720399830579 7.99503017658524374423543e-06 0
0.992323868204123438196973 7.97654360525137342185966e-06 0
0.992323916874079836603073 7.95425423205896388084875e-06 0
0.992323976583026179376645 7.92831873596694386300068e-06 0
0.992324046824200056704512 7.8988882701534356736402e-06 0
0.992324127115068010951404 7.86610881376327457164491e-06 0
0.992324216995086327841591 7.83012152790716599250111e-06 0
0.992324316023778130180233 7.79106305486870497924428e-06 0
0.992324423779065822870393 7.7490658251308802158654e-06 0
0.992324539855775955565775 7.70425832942625663391639e-06 0
0.992324663864315281713857 7.65676539873875604443054e-06 0
0.992324795429438410998557 7.6067084640863962476825e-06 0
0.992324934189176999232984 7.55420583914380939160541e-06 -4.91611710887000583116271e-31
0.992325079793768383140673 7.499372988931884040603e-06 -5.14533013848447133970204e-31
0.992325231904699789353685 7.44232284191769671334582e-06 0
0.992325390193719014675366 7.38316608908757813530118e-06 0
0.992325554341929705337577 7.32201155222683619305324e-06 0
0.992325724038791268100113 7.25896655142543222933487e-06 1.15353437116765950396789e-42
0.992325898981164300494129 7.19413735159046152265946e-06 -1.27636171286058887301757e-44
0.992326078872214689674536 7.12762964617625095900067e-06 0
0.992326263420327592257308 7.05954912680561857567024e-06 0
0.992326452337773834422308 6.99000214659901147618839e-06 -6.59913995911409709210924e-31
0.99232664533936953965565 6.91909648828819568431355e-06 -6.7342894208311771727552e-31
0.992326842140810128078954 6.84694227859780185077229e-06 0
0.992327042456880525911345 6.77365307387566050937146e-06 0
0.992327245999254259345435 6.69934712249348817905562e-06 0
0.992327452474040860863624 6.62414889509305064108167e-06 0
0.992327661578873643222209 6.54819081796629378939157e-06 0
0.992327872999494320360725 6.47161535884758439175638e-06 7.30406553772834478105667e-31
0.992328086405778853062998 6.39457736151124545525117e-06 7.35213644619662161549934e-31
0.992328301447111926769651 6.31724673228936081024977e-06 0
0.992328517747077309962833 6.23981141904641230363972e-06 7.39695569249962117936958e-31
0.992328734897404696191359 6.16248062081948349378658e-06 7.38987809695070085819515e-31
0.992328952451152712654903 6.08548826633580791542174e-06 0
0.992329169915402875545851 6.00909655496415789238153e-06 -7.30470486849767326151647e-31
0.99232938674332638040454 5.93359980570305456631496e-06 -7.2207315898852479529186e-31
0.992329602326478710239144 5.85932888576599266973683e-06 0
0.992329815986353058754332 5.78665785510955197674292e-06 0
0.992330026970216771964317 5.71601600641801904916384e-06 -6.7576640123908151449165e-31
0.992330234426727852969918 5.64791826917869584139204e-06 -6.51314322455340126335878e-31
0.992330437493837980156286 5.58301494490916001194134e-06 0
0.992330634742307315931953 5.52232617236274113376544e-06 5.79716931960132382309679e-31
0.992330827331564635507277 5.46715087015886760929547e-06 5.26647625597324949027617e-31
0.992331000761846215851847 5.42225481806012827998764e-06 0
0.992331236430191054864736 5.38388746767859344480572e-06 0
0.987193854671237547293572 1.03332245906758832303335e-07 0
0.987331617800839222987008 3.99697544711391025690347e-06 0
0.987356464469073547007838 5.14629218393682043628358e-06 0
0.987340860369971151655477 4.96776595384670319102e-06 -1.74745454117916990119357e-30
0.98733533217225311062748 5.25974911338155486220181e-06 0
0.987335236016501971434423 5.71134592293861519796258e-06 -4.4057070497338709833361e-30
0.987334465687201401351558 6.01776704347016701816169e-06 0
0.987333146942121708811158 6.23897489781319546087428e-06 -2.15158597052244322295481e-30
0.987331999292842543702875 6.43736144907904744589394e-06 -1.93014605065451373919953e-30
0.987331052598936054209844 6.61704479081704753401939e-06 0
0.987330215301563729468626 6.776424770332447618899e-06 0
0.98732946600870830078378 6.91955499190290122010598e-06 0
0.987328802172529274017165 7.04998323240317794236443e-06 0
0.987328215133809750092553 7.16942019676587397075023e-06 0
0.987327694803187161376457 7.27887069924245598507781e-06 0
0.987327232976806024034033 7.37911754462119734866016e-06 0
0.987326822959379790667356 7.47075982254527645905207e-06 0
0.987326459036389270096379 7.55425452707807583229522e-06 0
0.987326136340787585687906 7.62997692405157365916346e-06 -7.55056341835292762712453e-31
0.9873258507610409573374 7.69825616740372086399449e-06 6.8380132737027545409559e-31
0.987325598817322069855607 7.75939169126148353737658e-06 1.23069597149011575935197e-30
0.987325377547375038211896 7.81366240392754970620851e-06 0
0.987325184414182155379081 7.86133236919412260301082e-06 9.72245431500543446538931e-31
0.987325017230370360898917 7.90265400684627143841621e-06 8.50209936455706242182634e-31
0.987324874095845239629909 7.93786979179789238742545e-06 0
0.987324753346835448652996 7.96721321183251087708239e-06 0
0.987324653514642047724692 7.9909093444789886884292e-06 2.55355740323640223433321e-31
0.987324573292284179970579 8.00917526142228515593884e-06 2.02953127434335244520437e-31
0.987324511507556512590611 8.02222033761066544859959e-06 1.52522634550703753426626e-31
0.987324467101204250596425 8.03024654485368307073063e-06 1.03997316027502554648968e-31
0.987324439109272367076642 8.03344872307753555000422e-06 0
0.987324426648758191049637 8.03201486898880727589595e-06 0
0.987324428905946960277618 8.02612641235201058691976e-06 0
0.987324445126834149277784 8.01595850893194274741204e-06 0
0.987324474609276303560534 8.00168031440789669170993e-06 0
0.987324516696511333968544 7.98345527450723641904942e-06 0
0.987324570771786813594417 7.96144138720128638324076e-06 0
0.987324636253838816557504 7.93579148407437407332192e-06 0
0.987324712593114606207223 7.90665347441313654691143e-06 0
0.987324799268566644094847 7.87417061137250914783919e-06 0
0.9873248957849337648085 7.83848172311458267860242e-06 0
0.987325001670367741191114 7.79972146035795651402341e-06 0
0.987325116474389807841305 7.75802051725596221725279e-06 0
0.987325239766116746764624 7.71350586453182998517095e-06 0
0.987325371132670714935387 7.666300970850034517492e-06 0
0.987325510177766485497841 7.6165260338228176907713e-06 0
0.987325656520407268779138 7.56429820856238583389863e-06 0
0.987325809793742625863899 7.50973186166110723093305e-06 0
0.98732596964394325755876 7.45293882292984465255019e-06 0
0.987326135729186926681678 7.39402868472442676133632e-06 0
0.987326307718632167897965 7.33310909628186641294814e-06 0
0.987326485291475042238574 7.27028613123207968419034e-06 0
0.987326668135920626490076 7.20566466091747688635545e-06 6.04930082988273370117329e-31
0.987326855948210568847401 7.13934881268142532020991e-06 6.21708553202190572348435e-31
0.98732704843151497531295 7.07144247141844208541126e-06 0
0.987327245294844946243984 7.00204987717211839177555e-06 0
0.987327446251730744819497 6.93127632213553829845483e-06 0
0.987327651018899410395591 6.85922897345907605346806e-06 0
0.987327859314647171551371 6.78601784329444596090188e-06 0
0.987328070857098616386338 6.7117569641579191355588e-06 1.40180966097339071295052e-30
0.987328285362071511599424 6.63656573792607195000706e-06 1.42058374550881275342589e-30
0.987328502540707031442935 6.56057059613764283488623e-06 0
0.987328722096656008488935 6.48390685944075304268956e-06 0
0.987328943722781127156907 6.40672099513076498053521e-06 0
0.987329167097309778888814 6.32917311867488493890488e-06 0
0.987329391879347650906595 6.25143989250088812119821e-06 0
0.987329617703703643627478 6.17371769721368100162368e-06 7.37039848061567358644037e-31
0.987329844174976156701007 6.09622607381127735467043e-06 7.35170663917824980124775e-31
0.987330070860857778036745 6.01921136469829993310239e-06 0
0.987330297284964242265914 5.94295043651385326719189e-06 0
0.98733052291912204445623 5.86775453142693031603674e-06 0
0.987330747176189404967772 5.79397365916830902558138e-06 -7.00639142238964292877764e-31
0.987330969402878788621081 5.72200288188488958977286e-06 -6.83443678570940496546987e-31
0.987331188879377097400436 5.65229383466344400508167e-06 0
0.987331404800809719901622 5.58538417430525998430167e-06 -6.35061641551905087309356e-31
0.98733161639645328211401 5.52194436449134773295735e-06 -6.01760490951370188225461e-31
0.987331822348974097458552 5.46300584991896677413033e-06 0
0.987332024400168317690429 5.40982431098571400139271e-06 -5.03181498492130719223307e-31
0.98733220735583648863809 5.36694177632027093742149e-06 -4.01087805683431418998431e-31
0.987332461160229213348316 5.32945116878142713775146e-06 0
0.980943489564476744924093 7.42670612548923634437263e-07 0
0.981082262532820492673125 4.28100018446300175983463e-06 0
0.981106742551236643556933 5.49052520779968534266752e-06 0
0.981090948729483214307834 5.43468164890466608137097e-06 -5.67624191674726381802763e-31
0.981085507787555655134781 5.71276204136855548555447e-06 0
0.981085448777861190983174 6.12376702039456312592989e-06 -4.01561031087029371953021e-30
0.981084672397470880511605 6.39522387425924987056861e-06 0
0.981083358845487252253292 6.57978811293450959244138e-06 -1.81380053521148947837895e-30
0.981082225503233096297606 6.74103122563936461110251e-06 -1.58613057823912595659212e-30
0.981081293368683104993977 6.88616061715614035618769e-06 0
0.981080470541699223296916 7.01442310574660150216796e-06 0
0.981079736596580431751136 7.12986108819951141401692e-06 0
0.981079088905647211937833 7.23584123217069396973977e-06 0
0.981078518583116232498753 7.3337713917455567801118e-06 0
0.981078015488407895183798 7.42429366261833520934058e-06 0
0.981077571411229087949835 7.50783204608430002741353e-06 0
0.981077179633855545048959 7.58465767652023809068098e-06 0
0.981076834411590881224186 7.65493939767926012305525e-06 0
0.981076530845097272148791 7.71880608768055059018629e-06 -6.4672861383436304039965e-31
0.981076264787138274670042 7.77637991566955654723289e-06 5.86228841799957229547207e-31
0.981076032718666724008472 7.82778826342490743667082e-06 1.05388720025831344448711e-30
0.981075831635962569698961 7.87316791946934058435675e-06 0
0.981075658959548735360556 7.91266593790738072147859e-06 8.24711021556647124229094e-31
0.981075512459557708133673 7.94643848590672633119911e-06 7.14459625798554307664142e-31
0.981075390194120156017732 7.97464878079301530517612e-06 0
0.98107529045898789199498 7.9974648845671971592302e-06 0
0.981075211746694875181163 8.01505766858077565463741e-06 0
0.981075152713466902554273 8.02759908339915683817348e-06 0
0.981075112152434813950208 8.035260740845210402695e-06 0
0.981075088971882114385892 8.03821281191635704597293e-06 0
0.981075082177598090105164 8.03662318011657891424389e-06 0
0.981075090858502418811327 8.03065682935230559802171e-06 0
0.981075114174913776032838 8.02047540238733550174884e-06 0
0.981075151348888785385327 8.00623691327102689457417e-06 0
0.981075201656278261808097 7.98809556036305420511495e-06 0
0.98107526442014492129573 7.96620164181317236252143e-06 0
0.98107533900528809400754 7.94070151968003717717851e-06 0